<?xml version="1.0" encoding="UTF-8"?>

<!-- generated on 2025-09-01 23:27:13 by Eclipse SUMO sumo Version 1.24.0
<sumoConfiguration xmlns:xsi="http://www.w3.org/2001/XMLSchema-instance" xsi:noNamespaceSchemaLocation="http://sumo.dlr.de/xsd/sumoConfiguration.xsd">

    <input>
        <net-file value="data/manhattan.net.xml"/>
        <route-files value="data/manhattan.rou.xml"/>
        <additional-files value="data/manhattan.add.xml"/>
    </input>

    <output>
        <tripinfo-output value="data/tripinfo.xml"/>
    </output>

    <time>
        <begin value="0"/>
        <end value="3600"/>
        <step-length value="0.1"/>
    </time>

    <processing>
        <lateral-resolution value="0.8"/>
        <collision.action value="warn"/>
        <collision.check-junctions value="true"/>
        <emergencydecel.warning-threshold value="1.1"/>
    </processing>

    <routing>
        <device.rerouting.probability value="0.8"/>
        <device.rerouting.period value="300"/>
    </routing>

    <report>
        <no-warnings value="true"/>
        <duration-log.statistics value="true"/>
    </report>

    <emissions>
        <device.emissions.probability value="1.0"/>
    </emissions>

    <battery>
        <device.battery.probability value="0.3"/>
    </battery>

    <traci_server>
        <remote-port value="58611"/>
    </traci_server>

</sumoConfiguration>
-->

<tripinfos xmlns:xsi="http://www.w3.org/2001/XMLSchema-instance" xsi:noNamespaceSchemaLocation="http://sumo.dlr.de/xsd/tripinfo_file.xsd">
</tripinfos>
